<?xml version="1.0" encoding="UTF-8"?>

<!-- generated on 2022-05-30 21:37:07 by Eclipse SUMO sumo Version 1.12.0
<configuration xmlns:xsi="http://www.w3.org/2001/XMLSchema-instance" xsi:noNamespaceSchemaLocation="http://sumo.dlr.de/xsd/sumoConfiguration.xsd">

    <input>
        <net-file value="GridNetwork.net.xml"/>
        <route-files value="GridNetwork_high.rou.xml"/>
    </input>

    <output>
        <emission-output value="GridNetwork.emission.xml"/>
        <tripinfo-output value="GridNetwork.tripinfo.xml"/>
    </output>

    <traci_server>
        <remote-port value="50305"/>
    </traci_server>

</configuration>
-->

<tripinfos xmlns:xsi="http://www.w3.org/2001/XMLSchema-instance" xsi:noNamespaceSchemaLocation="http://sumo.dlr.de/xsd/tripinfo_file.xsd">
    <tripinfo id="1" depart="1.00" departLane="z_2_0" departPos="5.10" departSpeed="0.00" departDelay="0.25" arrival="42.00" arrivalLane="z_2_0" arrivalPos="472.80" arrivalSpeed="12.81" duration="41.00" routeLength="467.70" waitingTime="0.00" waitingCount="0" stopTime="0.00" timeLoss="4.94" rerouteNo="0" devices="tripinfo_1 emissions_1" vType="DEFAULT_VEHTYPE" speedFactor="0.94" vaporized="">
        <emissions CO_abs="1377.648028" CO2_abs="100668.957496" HC_abs="8.613341" PMx_abs="1.590146" NOx_abs="39.677955" fuel_abs="43.273448" electricity_abs="0"/>
    </tripinfo>
    <tripinfo id="39" depart="30.00" departLane="z_2_0" departPos="5.10" departSpeed="0.00" departDelay="0.75" arrival="73.00" arrivalLane="z_2_0" arrivalPos="472.80" arrivalSpeed="11.46" duration="43.00" routeLength="467.70" waitingTime="0.00" waitingCount="0" stopTime="0.00" timeLoss="4.88" rerouteNo="0" devices="tripinfo_39 emissions_39" vType="DEFAULT_VEHTYPE" speedFactor="0.90" vaporized="">
        <emissions CO_abs="1435.029580" CO2_abs="104377.631766" HC_abs="8.951765" PMx_abs="1.607583" NOx_abs="40.935807" fuel_abs="44.867717" electricity_abs="0"/>
    </tripinfo>
    <tripinfo id="0" depart="0.00" departLane="z_37_0" departPos="5.10" departSpeed="0.00" departDelay="0.00" arrival="76.00" arrivalLane="z_10_1" arrivalPos="472.80" arrivalSpeed="13.84" duration="76.00" routeLength="978.61" waitingTime="0.00" waitingCount="0" stopTime="0.00" timeLoss="8.97" rerouteNo="0" devices="tripinfo_0 emissions_0" vType="DEFAULT_VEHTYPE" speedFactor="1.06" vaporized="">
        <emissions CO_abs="2467.137057" CO2_abs="198404.492691" HC_abs="15.817055" PMx_abs="3.309102" NOx_abs="78.700244" fuel_abs="85.285509" electricity_abs="0"/>
    </tripinfo>
    <tripinfo id="13" depart="10.00" departLane="z_13_0" departPos="5.10" departSpeed="0.00" departDelay="0.25" arrival="86.00" arrivalLane="z_14_0" arrivalPos="472.80" arrivalSpeed="15.42" duration="76.00" routeLength="981.30" waitingTime="0.00" waitingCount="0" stopTime="0.00" timeLoss="12.74" rerouteNo="0" devices="tripinfo_13 emissions_13" vType="DEFAULT_VEHTYPE" speedFactor="1.12" vaporized="">
        <emissions CO_abs="2687.711140" CO2_abs="219524.709248" HC_abs="17.156825" PMx_abs="3.670428" NOx_abs="86.656191" fuel_abs="94.364146" electricity_abs="0"/>
    </tripinfo>
    <tripinfo id="30" depart="23.00" departLane="z_9_0" departPos="5.10" departSpeed="0.00" departDelay="0.50" arrival="92.00" arrivalLane="z_38_0" arrivalPos="472.80" arrivalSpeed="15.94" duration="69.00" routeLength="963.13" waitingTime="0.00" waitingCount="0" stopTime="0.00" timeLoss="8.86" rerouteNo="0" devices="tripinfo_30 emissions_30" vType="DEFAULT_VEHTYPE" speedFactor="1.18" vaporized="">
        <emissions CO_abs="2448.501869" CO2_abs="202408.482864" HC_abs="15.809025" PMx_abs="3.478323" NOx_abs="80.374697" fuel_abs="87.006488" electricity_abs="0"/>
    </tripinfo>
    <tripinfo id="5" depart="4.00" departLane="z_18_0" departPos="5.10" departSpeed="0.00" departDelay="0.25" arrival="96.00" arrivalLane="z_31_0" arrivalPos="472.80" arrivalSpeed="11.47" duration="92.00" routeLength="949.53" waitingTime="0.00" waitingCount="0" stopTime="0.00" timeLoss="8.40" rerouteNo="0" devices="tripinfo_5 emissions_5" vType="DEFAULT_VEHTYPE" speedFactor="0.83" vaporized="">
        <emissions CO_abs="2684.560860" CO2_abs="187986.210160" HC_abs="16.569298" PMx_abs="2.901334" NOx_abs="74.206435" fuel_abs="80.807689" electricity_abs="0"/>
    </tripinfo>
    <tripinfo id="79" depart="60.00" departLane="z_19_0" departPos="5.10" departSpeed="0.00" departDelay="0.75" arrival="96.00" arrivalLane="z_19_0" arrivalPos="472.80" arrivalSpeed="14.12" duration="36.00" routeLength="467.70" waitingTime="0.00" waitingCount="0" stopTime="0.00" timeLoss="4.33" rerouteNo="0" devices="tripinfo_79 emissions_79" vType="DEFAULT_VEHTYPE" speedFactor="1.09" vaporized="">
        <emissions CO_abs="1340.578662" CO2_abs="108808.145389" HC_abs="8.609894" PMx_abs="1.799047" NOx_abs="42.876099" fuel_abs="46.771946" electricity_abs="0"/>
    </tripinfo>
    <tripinfo id="29" depart="22.00" departLane="z_15_0" departPos="5.10" departSpeed="0.00" departDelay="0.25" arrival="105.00" arrivalLane="z_26_0" arrivalPos="472.80" arrivalSpeed="11.89" duration="83.00" routeLength="949.53" waitingTime="0.00" waitingCount="0" stopTime="0.00" timeLoss="8.94" rerouteNo="0" devices="tripinfo_29 emissions_29" vType="DEFAULT_VEHTYPE" speedFactor="0.93" vaporized="">
        <emissions CO_abs="2344.852645" CO2_abs="192170.064096" HC_abs="15.132720" PMx_abs="2.914249" NOx_abs="74.774750" fuel_abs="82.605975" electricity_abs="0"/>
    </tripinfo>
    <tripinfo id="75" depart="57.00" departLane="z_9_0" departPos="5.10" departSpeed="0.00" departDelay="0.75" arrival="136.00" arrivalLane="z_38_0" arrivalPos="472.80" arrivalSpeed="13.41" duration="79.00" routeLength="963.13" waitingTime="0.00" waitingCount="0" stopTime="0.00" timeLoss="7.51" rerouteNo="0" devices="tripinfo_75 emissions_75" vType="DEFAULT_VEHTYPE" speedFactor="0.98" vaporized="">
        <emissions CO_abs="2147.912062" CO2_abs="186511.308286" HC_abs="14.125877" PMx_abs="2.896307" NOx_abs="72.739035" fuel_abs="80.173324" electricity_abs="0"/>
    </tripinfo>
    <tripinfo id="130" depart="98.00" departLane="z_47_0" departPos="5.10" departSpeed="0.00" departDelay="0.50" arrival="136.00" arrivalLane="z_47_0" arrivalPos="472.80" arrivalSpeed="13.59" duration="38.00" routeLength="467.70" waitingTime="0.00" waitingCount="0" stopTime="0.00" timeLoss="5.37" rerouteNo="0" devices="tripinfo_130 emissions_130" vType="DEFAULT_VEHTYPE" speedFactor="1.03" vaporized="">
        <emissions CO_abs="1413.350790" CO2_abs="104564.366845" HC_abs="8.874504" PMx_abs="1.723870" NOx_abs="41.484013" fuel_abs="44.947818" electricity_abs="0"/>
    </tripinfo>
    <tripinfo id="4" depart="3.00" departLane="z_27_0" departPos="5.10" departSpeed="0.00" departDelay="0.00" arrival="139.00" arrivalLane="z_11_1" arrivalPos="472.80" arrivalSpeed="14.16" duration="136.00" routeLength="1449.53" waitingTime="18.00" waitingCount="1" stopTime="0.00" timeLoss="33.64" rerouteNo="0" devices="tripinfo_4 emissions_4" vType="DEFAULT_VEHTYPE" speedFactor="1.03" vaporized="">
        <emissions CO_abs="5443.797829" CO2_abs="333658.236086" HC_abs="32.548587" PMx_abs="5.581679" NOx_abs="132.740455" fuel_abs="143.426314" electricity_abs="0"/>
    </tripinfo>
    <tripinfo id="80" depart="60.00" departLane="z_11_0" departPos="5.10" departSpeed="0.00" departDelay="0.00" arrival="140.00" arrivalLane="z_36_0" arrivalPos="486.40" arrivalSpeed="13.36" duration="80.00" routeLength="978.61" waitingTime="0.00" waitingCount="0" stopTime="0.00" timeLoss="10.88" rerouteNo="0" devices="tripinfo_80 emissions_80" vType="DEFAULT_VEHTYPE" speedFactor="1.03" vaporized="">
        <emissions CO_abs="2753.104149" CO2_abs="217040.429511" HC_abs="17.591061" PMx_abs="3.591867" NOx_abs="86.056436" fuel_abs="93.296376" electricity_abs="0"/>
    </tripinfo>
    <tripinfo id="98" depart="74.00" departLane="z_31_0" departPos="5.10" departSpeed="0.00" departDelay="0.50" arrival="144.00" arrivalLane="z_11_0" arrivalPos="472.80" arrivalSpeed="14.61" duration="70.00" routeLength="949.53" waitingTime="0.00" waitingCount="0" stopTime="0.00" timeLoss="8.11" rerouteNo="0" devices="tripinfo_98 emissions_98" vType="DEFAULT_VEHTYPE" speedFactor="1.12" vaporized="">
        <emissions CO_abs="2210.301307" CO2_abs="192697.621208" HC_abs="14.513410" PMx_abs="3.238918" NOx_abs="76.207475" fuel_abs="82.832212" electricity_abs="0"/>
    </tripinfo>
    <tripinfo id="152" depart="114.00" departLane="z_15_0" departPos="5.10" departSpeed="0.00" departDelay="0.00" arrival="150.00" arrivalLane="z_15_0" arrivalPos="472.80" arrivalSpeed="14.54" duration="36.00" routeLength="467.70" waitingTime="0.00" waitingCount="0" stopTime="0.00" timeLoss="4.51" rerouteNo="0" devices="tripinfo_152 emissions_152" vType="DEFAULT_VEHTYPE" speedFactor="1.07" vaporized="">
        <emissions CO_abs="1199.259233" CO2_abs="96745.867389" HC_abs="7.709550" PMx_abs="1.578267" NOx_abs="38.117856" fuel_abs="41.586921" electricity_abs="0"/>
    </tripinfo>
    <tripinfo id="107" depart="81.00" departLane="z_7_0" departPos="5.10" departSpeed="0.00" departDelay="0.75" arrival="156.00" arrivalLane="z_8_0" arrivalPos="486.40" arrivalSpeed="13.09" duration="75.00" routeLength="981.30" waitingTime="0.00" waitingCount="0" stopTime="0.00" timeLoss="6.68" rerouteNo="0" devices="tripinfo_107 emissions_107" vType="DEFAULT_VEHTYPE" speedFactor="1.03" vaporized="">
        <emissions CO_abs="1940.248409" CO2_abs="178491.349337" HC_abs="12.960167" PMx_abs="2.791655" NOx_abs="69.349477" fuel_abs="76.725786" electricity_abs="0"/>
    </tripinfo>
    <tripinfo id="54" depart="41.00" departLane="z_29_0" departPos="5.10" departSpeed="0.00" departDelay="0.50" arrival="157.00" arrivalLane="z_7_0" arrivalPos="472.80" arrivalSpeed="12.86" duration="116.00" routeLength="1463.13" waitingTime="0.00" waitingCount="0" stopTime="0.00" timeLoss="9.67" rerouteNo="0" devices="tripinfo_54 emissions_54" vType="DEFAULT_VEHTYPE" speedFactor="1.00" vaporized="">
        <emissions CO_abs="2753.750304" CO2_abs="261313.352337" HC_abs="18.610560" PMx_abs="4.004198" NOx_abs="101.182335" fuel_abs="112.327459" electricity_abs="0"/>
    </tripinfo>
    <tripinfo id="108" depart="81.00" departLane="z_33_0" departPos="5.10" departSpeed="0.00" departDelay="0.00" arrival="157.00" arrivalLane="z_4_0" arrivalPos="486.40" arrivalSpeed="14.68" duration="76.00" routeLength="976.73" waitingTime="0.00" waitingCount="0" stopTime="0.00" timeLoss="8.11" rerouteNo="0" devices="tripinfo_108 emissions_108" vType="DEFAULT_VEHTYPE" speedFactor="1.06" vaporized="">
        <emissions CO_abs="2365.864390" CO2_abs="198888.889935" HC_abs="15.403007" PMx_abs="3.329526" NOx_abs="78.910321" fuel_abs="85.493632" electricity_abs="0"/>
    </tripinfo>
    <tripinfo id="123" depart="93.00" departLane="z_19_0" departPos="5.10" departSpeed="0.00" departDelay="0.75" arrival="168.00" arrivalLane="z_27_1" arrivalPos="472.80" arrivalSpeed="13.53" duration="75.00" routeLength="949.53" waitingTime="0.00" waitingCount="0" stopTime="0.00" timeLoss="7.51" rerouteNo="0" devices="tripinfo_123 emissions_123" vType="DEFAULT_VEHTYPE" speedFactor="1.02" vaporized="">
        <emissions CO_abs="2121.720770" CO2_abs="182286.743640" HC_abs="13.877263" PMx_abs="2.912973" NOx_abs="71.500436" fuel_abs="78.357260" electricity_abs="0"/>
    </tripinfo>
    <tripinfo id="63" depart="50.00" departLane="z_1_0" departPos="5.10" departSpeed="0.00" departDelay="2.75" arrival="180.00" arrivalLane="z_6_0" arrivalPos="472.80" arrivalSpeed="12.72" duration="130.00" routeLength="1460.44" waitingTime="6.00" waitingCount="1" stopTime="0.00" timeLoss="21.77" rerouteNo="0" devices="tripinfo_63 emissions_63" vType="DEFAULT_VEHTYPE" speedFactor="0.99" vaporized="">
        <emissions CO_abs="3495.379815" CO2_abs="293172.214068" HC_abs="22.712698" PMx_abs="4.463051" NOx_abs="113.762595" fuel_abs="126.022573" electricity_abs="0"/>
    </tripinfo>
    <tripinfo id="135" depart="102.00" departLane="z_45_0" departPos="5.10" departSpeed="0.00" departDelay="0.75" arrival="180.00" arrivalLane="z_22_0" arrivalPos="472.80" arrivalSpeed="12.78" duration="78.00" routeLength="963.13" waitingTime="0.00" waitingCount="0" stopTime="0.00" timeLoss="8.09" rerouteNo="0" devices="tripinfo_135 emissions_135" vType="DEFAULT_VEHTYPE" speedFactor="1.01" vaporized="">
        <emissions CO_abs="2318.168213" CO2_abs="198115.939153" HC_abs="15.190747" PMx_abs="3.185222" NOx_abs="77.959706" fuel_abs="85.161530" electricity_abs="0"/>
    </tripinfo>
    <tripinfo id="134" depart="101.00" departLane="z_37_0" departPos="5.10" departSpeed="0.00" departDelay="0.50" arrival="182.00" arrivalLane="z_10_0" arrivalPos="472.80" arrivalSpeed="13.01" duration="81.00" routeLength="978.61" waitingTime="5.00" waitingCount="1" stopTime="0.00" timeLoss="22.51" rerouteNo="0" devices="tripinfo_134 emissions_134" vType="DEFAULT_VEHTYPE" speedFactor="1.23" vaporized="">
        <emissions CO_abs="3568.554710" CO2_abs="241880.710083" HC_abs="21.925122" PMx_abs="4.523790" NOx_abs="99.277821" fuel_abs="103.973772" electricity_abs="0"/>
    </tripinfo>
    <tripinfo id="16" depart="12.00" departLane="z_31_0" departPos="5.10" departSpeed="0.00" departDelay="0.00" arrival="189.00" arrivalLane="z_8_0" arrivalPos="486.40" arrivalSpeed="11.21" duration="177.00" routeLength="1942.27" waitingTime="0.00" waitingCount="0" stopTime="0.00" timeLoss="14.64" rerouteNo="0" devices="tripinfo_16 emissions_16" vType="DEFAULT_VEHTYPE" speedFactor="0.88" vaporized="">
        <emissions CO_abs="4640.389953" CO2_abs="369534.304096" HC_abs="29.668339" PMx_abs="5.522578" NOx_abs="143.894796" fuel_abs="158.847708" electricity_abs="0"/>
    </tripinfo>
    <tripinfo id="142" depart="107.00" departLane="z_3_0" departPos="5.10" departSpeed="0.00" departDelay="0.50" arrival="191.00" arrivalLane="z_48_0" arrivalPos="486.40" arrivalSpeed="12.09" duration="84.00" routeLength="963.13" waitingTime="0.00" waitingCount="0" stopTime="0.00" timeLoss="8.40" rerouteNo="0" devices="tripinfo_142 emissions_142" vType="DEFAULT_VEHTYPE" speedFactor="0.94" vaporized="">
        <emissions CO_abs="2490.977916" CO2_abs="204067.344122" HC_abs="16.092262" PMx_abs="3.197203" NOx_abs="80.161200" fuel_abs="87.719958" electricity_abs="0"/>
    </tripinfo>
    <tripinfo id="34" depart="26.00" departLane="z_22_0" departPos="5.10" departSpeed="0.00" departDelay="0.50" arrival="192.00" arrivalLane="z_20_0" arrivalPos="486.40" arrivalSpeed="13.02" duration="166.00" routeLength="1960.44" waitingTime="4.00" waitingCount="1" stopTime="0.00" timeLoss="22.10" rerouteNo="0" devices="tripinfo_34 emissions_34" vType="DEFAULT_VEHTYPE" speedFactor="0.99" vaporized="">
        <emissions CO_abs="4739.811928" CO2_abs="392749.686561" HC_abs="30.743998" PMx_abs="6.323921" NOx_abs="154.727981" fuel_abs="168.826308" electricity_abs="0"/>
    </tripinfo>
    <tripinfo id="2" depart="2.00" departLane="z_41_0" departPos="5.10" departSpeed="0.00" departDelay="0.50" arrival="195.00" arrivalLane="z_39_1" arrivalPos="472.80" arrivalSpeed="12.82" duration="193.00" routeLength="1960.44" waitingTime="34.00" waitingCount="1" stopTime="0.00" timeLoss="51.97" rerouteNo="0" devices="tripinfo_2 emissions_2" vType="DEFAULT_VEHTYPE" speedFactor="1.01" vaporized="">
        <emissions CO_abs="9075.803879" CO2_abs="456392.422548" HC_abs="51.954505" PMx_abs="7.864207" NOx_abs="183.236865" fuel_abs="196.185854" electricity_abs="0"/>
    </tripinfo>
    <tripinfo id="64" depart="48.00" departLane="z_47_0" departPos="5.10" departSpeed="0.00" departDelay="0.00" arrival="195.00" arrivalLane="z_44_0" arrivalPos="486.40" arrivalSpeed="11.78" duration="147.00" routeLength="1460.44" waitingTime="18.00" waitingCount="1" stopTime="0.00" timeLoss="32.58" rerouteNo="0" devices="tripinfo_64 emissions_64" vType="DEFAULT_VEHTYPE" speedFactor="0.94" vaporized="">
        <emissions CO_abs="6063.078360" CO2_abs="343299.179126" HC_abs="35.580429" PMx_abs="5.579336" NOx_abs="136.111393" fuel_abs="147.571161" electricity_abs="0"/>
    </tripinfo>
    <tripinfo id="83" depart="66.00" departLane="z_19_0" departPos="5.10" departSpeed="0.00" departDelay="3.75" arrival="195.00" arrivalLane="z_39_0" arrivalPos="472.80" arrivalSpeed="12.59" duration="129.00" routeLength="965.01" waitingTime="41.00" waitingCount="1" stopTime="0.00" timeLoss="55.76" rerouteNo="0" devices="tripinfo_83 emissions_83" vType="DEFAULT_VEHTYPE" speedFactor="0.97" vaporized="">
        <emissions CO_abs="8728.549996" CO2_abs="298735.991177" HC_abs="46.719134" PMx_abs="5.630576" NOx_abs="123.960313" fuel_abs="128.416871" electricity_abs="0"/>
    </tripinfo>
    <tripinfo id="137" depart="103.00" departLane="z_14_0" departPos="5.10" departSpeed="0.00" departDelay="0.25" arrival="196.00" arrivalLane="z_15_1" arrivalPos="472.80" arrivalSpeed="13.52" duration="93.00" routeLength="967.70" waitingTime="11.00" waitingCount="1" stopTime="0.00" timeLoss="23.54" rerouteNo="0" devices="tripinfo_137 emissions_137" vType="DEFAULT_VEHTYPE" speedFactor="1.02" vaporized="">
        <emissions CO_abs="3451.447552" CO2_abs="221973.838983" HC_abs="20.892018" PMx_abs="3.745084" NOx_abs="88.784729" fuel_abs="95.417443" electricity_abs="0"/>
    </tripinfo>
    <tripinfo id="125" depart="94.00" departLane="z_22_0" departPos="5.10" departSpeed="0.00" departDelay="0.25" arrival="200.00" arrivalLane="z_42_0" arrivalPos="472.80" arrivalSpeed="6.81" duration="106.00" routeLength="965.01" waitingTime="21.00" waitingCount="1" stopTime="0.00" timeLoss="44.96" rerouteNo="0" devices="tripinfo_125 emissions_125" vType="DEFAULT_VEHTYPE" speedFactor="1.15" vaporized="">
        <emissions CO_abs="6668.702519" CO2_abs="288859.093836" HC_abs="37.153404" PMx_abs="5.555954" NOx_abs="120.151075" fuel_abs="124.169466" electricity_abs="0"/>
    </tripinfo>
    <tripinfo id="69" depart="52.00" departLane="z_42_0" departPos="5.10" departSpeed="0.00" departDelay="0.25" arrival="202.00" arrivalLane="z_15_1" arrivalPos="472.80" arrivalSpeed="13.11" duration="150.00" routeLength="1449.53" waitingTime="31.00" waitingCount="1" stopTime="0.00" timeLoss="47.10" rerouteNo="0" devices="tripinfo_69 emissions_69" vType="DEFAULT_VEHTYPE" speedFactor="1.02" vaporized="">
        <emissions CO_abs="8008.629081" CO2_abs="357617.894422" HC_abs="44.795381" PMx_abs="6.389762" NOx_abs="145.249960" fuel_abs="153.726814" electricity_abs="0"/>
    </tripinfo>
    <tripinfo id="162" depart="122.00" departLane="z_1_0" departPos="5.10" departSpeed="0.00" departDelay="0.50" arrival="202.00" arrivalLane="z_40_0" arrivalPos="486.40" arrivalSpeed="12.79" duration="80.00" routeLength="976.73" waitingTime="0.00" waitingCount="0" stopTime="0.00" timeLoss="8.33" rerouteNo="0" devices="tripinfo_162 emissions_162" vType="DEFAULT_VEHTYPE" speedFactor="0.99" vaporized="">
        <emissions CO_abs="2231.557085" CO2_abs="185242.981700" HC_abs="14.465508" PMx_abs="2.964475" NOx_abs="72.865975" fuel_abs="79.628064" electricity_abs="0"/>
    </tripinfo>
    <tripinfo id="11" depart="9.00" departLane="z_23_0" departPos="5.10" departSpeed="0.00" departDelay="0.75" arrival="203.00" arrivalLane="z_16_0" arrivalPos="486.40" arrivalSpeed="14.03" duration="194.00" routeLength="1960.44" waitingTime="33.00" waitingCount="1" stopTime="0.00" timeLoss="54.81" rerouteNo="0" devices="tripinfo_11 emissions_11" vType="DEFAULT_VEHTYPE" speedFactor="1.03" vaporized="">
        <emissions CO_abs="9416.632606" CO2_abs="466507.906263" HC_abs="53.749917" PMx_abs="8.167289" NOx_abs="188.261353" fuel_abs="200.534026" electricity_abs="0"/>
    </tripinfo>
    <tripinfo id="148" depart="114.00" departLane="z_27_0" departPos="5.10" departSpeed="0.00" departDelay="3.00" arrival="206.00" arrivalLane="z_10_0" arrivalPos="472.80" arrivalSpeed="12.22" duration="92.00" routeLength="949.53" waitingTime="0.00" waitingCount="0" stopTime="0.00" timeLoss="20.45" rerouteNo="0" devices="tripinfo_148 emissions_148" vType="DEFAULT_VEHTYPE" speedFactor="0.97" vaporized="">
        <emissions CO_abs="3378.133768" CO2_abs="231610.346043" HC_abs="20.776506" PMx_abs="3.782033" NOx_abs="92.579788" fuel_abs="99.559709" electricity_abs="0"/>
    </tripinfo>
    <tripinfo id="180" depart="135.00" departLane="z_41_0" departPos="5.10" departSpeed="0.00" departDelay="0.00" arrival="208.00" arrivalLane="z_23_0" arrivalPos="472.80" arrivalSpeed="15.06" duration="73.00" routeLength="963.13" waitingTime="0.00" waitingCount="0" stopTime="0.00" timeLoss="8.69" rerouteNo="0" devices="tripinfo_180 emissions_180" vType="DEFAULT_VEHTYPE" speedFactor="1.10" vaporized="">
        <emissions CO_abs="2411.987245" CO2_abs="208921.511390" HC_abs="15.858885" PMx_abs="3.418303" NOx_abs="82.037178" fuel_abs="89.806315" electricity_abs="0"/>
    </tripinfo>
    <tripinfo id="115" depart="87.00" departLane="z_11_0" departPos="5.10" departSpeed="0.00" departDelay="0.75" arrival="212.00" arrivalLane="z_18_0" arrivalPos="472.80" arrivalSpeed="12.09" duration="125.00" routeLength="1431.36" waitingTime="0.00" waitingCount="0" stopTime="0.00" timeLoss="11.80" rerouteNo="0" devices="tripinfo_115 emissions_115" vType="DEFAULT_VEHTYPE" speedFactor="0.92" vaporized="">
        <emissions CO_abs="3284.110030" CO2_abs="274549.299138" HC_abs="21.316606" PMx_abs="4.145278" NOx_abs="106.808438" fuel_abs="118.017367" electricity_abs="0"/>
    </tripinfo>
    <tripinfo id="214" depart="166.00" departLane="z_42_0" departPos="5.10" departSpeed="0.00" departDelay="5.50" arrival="212.00" arrivalLane="z_42_0" arrivalPos="472.80" arrivalSpeed="10.53" duration="46.00" routeLength="467.70" waitingTime="0.00" waitingCount="0" stopTime="0.00" timeLoss="4.68" rerouteNo="0" devices="tripinfo_214 emissions_214" vType="DEFAULT_VEHTYPE" speedFactor="0.83" vaporized="">
        <emissions CO_abs="1540.168983" CO2_abs="97900.538034" HC_abs="9.295736" PMx_abs="1.641006" NOx_abs="39.555816" fuel_abs="42.083408" electricity_abs="0"/>
    </tripinfo>
    <tripinfo id="131" depart="99.00" departLane="z_25_0" departPos="5.10" departSpeed="0.00" departDelay="0.75" arrival="215.00" arrivalLane="z_16_0" arrivalPos="486.40" arrivalSpeed="13.85" duration="116.00" routeLength="992.21" waitingTime="35.00" waitingCount="1" stopTime="0.00" timeLoss="48.28" rerouteNo="0" devices="tripinfo_131 emissions_131" vType="DEFAULT_VEHTYPE" speedFactor="1.07" vaporized="">
        <emissions CO_abs="8031.601672" CO2_abs="292392.543154" HC_abs="43.338042" PMx_abs="5.599052" NOx_abs="121.359247" fuel_abs="125.689494" electricity_abs="0"/>
    </tripinfo>
    <tripinfo id="143" depart="108.00" departLane="z_46_0" departPos="5.10" departSpeed="0.00" departDelay="0.75" arrival="216.00" arrivalLane="z_14_0" arrivalPos="472.80" arrivalSpeed="9.15" duration="108.00" routeLength="1449.53" waitingTime="0.00" waitingCount="0" stopTime="0.00" timeLoss="14.34" rerouteNo="0" devices="tripinfo_143 emissions_143" vType="DEFAULT_VEHTYPE" speedFactor="1.13" vaporized="">
        <emissions CO_abs="3214.659216" CO2_abs="297109.072532" HC_abs="21.526843" PMx_abs="4.859471" NOx_abs="116.425220" fuel_abs="127.714162" electricity_abs="0"/>
    </tripinfo>
    <tripinfo id="87" depart="66.00" departLane="z_45_0" departPos="5.10" departSpeed="0.00" departDelay="0.75" arrival="218.00" arrivalLane="z_18_0" arrivalPos="472.80" arrivalSpeed="8.92" duration="152.00" routeLength="1463.13" waitingTime="21.00" waitingCount="1" stopTime="0.00" timeLoss="50.19" rerouteNo="0" devices="tripinfo_87 emissions_87" vType="DEFAULT_VEHTYPE" speedFactor="1.04" vaporized="">
        <emissions CO_abs="7657.734899" CO2_abs="385151.532929" HC_abs="43.875048" PMx_abs="6.997351" NOx_abs="157.974488" fuel_abs="165.561427" electricity_abs="0"/>
    </tripinfo>
    <tripinfo id="35" depart="27.00" departLane="z_18_0" departPos="5.10" departSpeed="0.00" departDelay="0.75" arrival="219.00" arrivalLane="z_6_0" arrivalPos="472.80" arrivalSpeed="13.61" duration="192.00" routeLength="2410.50" waitingTime="0.00" waitingCount="0" stopTime="0.00" timeLoss="19.63" rerouteNo="0" devices="tripinfo_35 emissions_35" vType="DEFAULT_VEHTYPE" speedFactor="1.02" vaporized="">
        <emissions CO_abs="5183.868735" CO2_abs="474142.857960" HC_abs="34.601714" PMx_abs="7.414441" NOx_abs="184.780821" fuel_abs="203.813683" electricity_abs="0"/>
    </tripinfo>
    <tripinfo id="84" depart="66.00" departLane="z_18_0" departPos="5.10" departSpeed="0.00" departDelay="3.00" arrival="219.00" arrivalLane="z_15_0" arrivalPos="472.80" arrivalSpeed="15.80" duration="153.00" routeLength="1446.84" waitingTime="46.00" waitingCount="1" stopTime="0.00" timeLoss="60.81" rerouteNo="0" devices="tripinfo_84 emissions_84" vType="DEFAULT_VEHTYPE" speedFactor="1.15" vaporized="">
        <emissions CO_abs="10455.943378" CO2_abs="422981.999385" HC_abs="57.351402" PMx_abs="8.008479" NOx_abs="173.816517" fuel_abs="181.824657" electricity_abs="0"/>
    </tripinfo>
    <tripinfo id="74" depart="56.00" departLane="z_18_0" departPos="5.10" departSpeed="0.00" departDelay="0.50" arrival="221.00" arrivalLane="z_23_0" arrivalPos="472.80" arrivalSpeed="12.24" duration="165.00" routeLength="1446.84" waitingTime="37.00" waitingCount="1" stopTime="0.00" timeLoss="54.07" rerouteNo="0" devices="tripinfo_74 emissions_74" vType="DEFAULT_VEHTYPE" speedFactor="0.96" vaporized="">
        <emissions CO_abs="8913.213169" CO2_abs="383600.638322" HC_abs="49.523522" PMx_abs="6.765918" NOx_abs="155.926015" fuel_abs="164.896189" electricity_abs="0"/>
    </tripinfo>
    <tripinfo id="66" depart="51.00" departLane="z_47_0" departPos="5.10" departSpeed="0.00" departDelay="1.50" arrival="223.00" arrivalLane="z_7_0" arrivalPos="472.80" arrivalSpeed="11.75" duration="172.00" routeLength="1913.19" waitingTime="0.00" waitingCount="0" stopTime="0.00" timeLoss="16.64" rerouteNo="0" devices="tripinfo_66 emissions_66" vType="DEFAULT_VEHTYPE" speedFactor="0.91" vaporized="">
        <emissions CO_abs="4747.907952" CO2_abs="384179.954565" HC_abs="30.506860" PMx_abs="5.757201" NOx_abs="149.357600" fuel_abs="165.143221" electricity_abs="0"/>
    </tripinfo>
    <tripinfo id="159" depart="120.00" departLane="z_15_0" departPos="5.10" departSpeed="0.00" departDelay="0.75" arrival="223.00" arrivalLane="z_6_0" arrivalPos="472.80" arrivalSpeed="14.82" duration="103.00" routeLength="1431.36" waitingTime="0.00" waitingCount="0" stopTime="0.00" timeLoss="11.06" rerouteNo="0" devices="tripinfo_159 emissions_159" vType="DEFAULT_VEHTYPE" speedFactor="1.14" vaporized="">
        <emissions CO_abs="3490.526936" CO2_abs="290073.603756" HC_abs="22.565044" PMx_abs="5.067608" NOx_abs="116.118274" fuel_abs="124.689673" electricity_abs="0"/>
    </tripinfo>
    <tripinfo id="25" depart="19.00" departLane="z_25_0" departPos="5.10" departSpeed="0.00" departDelay="0.25" arrival="224.00" arrivalLane="z_19_0" arrivalPos="472.80" arrivalSpeed="11.96" duration="205.00" routeLength="1957.75" waitingTime="21.00" waitingCount="1" stopTime="0.00" timeLoss="40.38" rerouteNo="0" devices="tripinfo_25 emissions_25" vType="DEFAULT_VEHTYPE" speedFactor="0.87" vaporized="">
        <emissions CO_abs="7904.996068" CO2_abs="417086.596191" HC_abs="45.672363" PMx_abs="6.902103" NOx_abs="167.231499" fuel_abs="179.289705" electricity_abs="0"/>
    </tripinfo>
    <tripinfo id="42" depart="32.00" departLane="z_26_0" departPos="5.10" departSpeed="0.00" departDelay="0.50" arrival="224.00" arrivalLane="z_19_1" arrivalPos="472.80" arrivalSpeed="15.06" duration="192.00" routeLength="2413.19" waitingTime="4.00" waitingCount="1" stopTime="0.00" timeLoss="30.22" rerouteNo="0" devices="tripinfo_42 emissions_42" vType="DEFAULT_VEHTYPE" speedFactor="1.09" vaporized="">
        <emissions CO_abs="6249.702830" CO2_abs="503958.261527" HC_abs="40.314698" PMx_abs="8.670316" NOx_abs="201.641387" fuel_abs="216.629467" electricity_abs="0"/>
    </tripinfo>
    <tripinfo id="71" depart="54.00" departLane="z_2_0" departPos="5.10" departSpeed="0.00" departDelay="0.75" arrival="226.00" arrivalLane="z_47_0" arrivalPos="472.80" arrivalSpeed="13.15" duration="172.00" routeLength="1928.67" waitingTime="6.00" waitingCount="1" stopTime="0.00" timeLoss="26.88" rerouteNo="0" devices="tripinfo_71 emissions_71" vType="DEFAULT_VEHTYPE" speedFactor="0.97" vaporized="">
        <emissions CO_abs="5436.905086" CO2_abs="392465.924263" HC_abs="33.921794" PMx_abs="6.398443" NOx_abs="155.649249" fuel_abs="168.704760" electricity_abs="0"/>
    </tripinfo>
    <tripinfo id="72" depart="62.00" departLane="z_27_0" departPos="5.10" departSpeed="0.00" departDelay="8.00" arrival="226.00" arrivalLane="z_19_0" arrivalPos="472.80" arrivalSpeed="13.04" duration="164.00" routeLength="1913.19" waitingTime="0.00" waitingCount="0" stopTime="0.00" timeLoss="15.52" rerouteNo="0" devices="tripinfo_72 emissions_72" vType="DEFAULT_VEHTYPE" speedFactor="0.94" vaporized="">
        <emissions CO_abs="4251.682027" CO2_abs="375563.190846" HC_abs="28.040162" PMx_abs="5.492803" NOx_abs="144.539993" fuel_abs="161.439162" electricity_abs="0"/>
    </tripinfo>
    <tripinfo id="33" depart="25.00" departLane="z_19_0" departPos="5.10" departSpeed="0.00" departDelay="0.25" arrival="235.00" arrivalLane="z_11_0" arrivalPos="472.80" arrivalSpeed="15.96" duration="210.00" routeLength="1931.36" waitingTime="68.00" waitingCount="1" stopTime="0.00" timeLoss="89.10" rerouteNo="0" devices="tripinfo_33 emissions_33" vType="DEFAULT_VEHTYPE" speedFactor="1.17" vaporized="">
        <emissions CO_abs="15076.912139" CO2_abs="579135.503318" HC_abs="82.087642" PMx_abs="11.231498" NOx_abs="240.142752" fuel_abs="248.949612" electricity_abs="0"/>
    </tripinfo>
    <tripinfo id="67" depart="51.00" departLane="z_13_0" departPos="5.10" departSpeed="0.00" departDelay="0.75" arrival="237.00" arrivalLane="z_30_0" arrivalPos="472.80" arrivalSpeed="11.79" duration="186.00" routeLength="1463.13" waitingTime="55.00" waitingCount="1" stopTime="0.00" timeLoss="70.24" rerouteNo="0" devices="tripinfo_67 emissions_67" vType="DEFAULT_VEHTYPE" speedFactor="0.91" vaporized="">